 Q-Chem 5.0, Q-Chem, Inc., Pleasanton, CA (2017)
 Q-Chem 5.0.2 for Mac (Intel) OS X

User input:
--------------------------------------------------------------
\begin{qinput}
{Dyson orbitals for ionization of CH2
from high-spin triplet reference and from the lowest SF state
$end
$molecule
   0 3
   C
   H  1 rCH
   H  1 rCH 2 aHCH

   rCH    = 1.1167
   aHCH   = 102.07
$end

$rem
   CORRELATION           CCSD
   BASIS                 6-31G*
   PURECART              2222    6d, will be required for ezDyson
   SCF_GUESS             core
   CCMAN2                true    new Dyson code
   CC_SYMMETRY           false
   SF_STATES             [1]
   EOM_IP_ALPHA          [2]     one should be careful to request
   EOM_EA_BETA           [2]     meaningful spin for EA/IP state(s)
   CC_TRANS_PROP         true    necessary for Dyson orbitals job
   CC_DO_DYSON           true
   PRINT_GENERAL_BASIS   true    will be required for ezDyson
$end
--------------------------------------------------------------

             Standard Nuclear Orientation (Angstroms)
    I     Atom           X                Y                Z
 ----------------------------------------------------------------
    1      C       0.0000000000     0.0000000000     0.1755579542
    2      H      -0.8682680261    -0.0000000000    -0.5266738627
    3      H       0.8682680261    -0.0000000000    -0.5266738627
 ----------------------------------------------------------------

   13     -38.9033252301      3.91e-09  Convergence criterion met
 Total energy in the final basis set =      -38.9033252301
 CCSD total energy           = -39.00426110
        Solving for EOMEE-CCSD A transitions.
 EOMSF transition 1/A
 Total energy = -38.99638361 a.u.  Excitation energy = 0.2144 eV.
        Solving for EOMIP-CCSD A transitions.
 EOMIP transition 1/A
 Total energy = -38.62974543 a.u.  Excitation energy = 10.1911 eV.
 EOMIP transition 2/A
 Total energy = -38.54553358 a.u.  Excitation energy = 12.4826 eV.
        Solving for EOMEA-CCSD/MP2 A transitions.
 EOMEA transition 1/A
 Total energy = -38.97685547 a.u.  Excitation energy = 0.7457 eV.
 EOMEA transition 2/A
 Total energy = -38.90140308 a.u.  Excitation energy = 2.7989 eV.
 Reference -- EOM-IP-CCSD state  1/A   transition
 Reference -- EOM-IP-CCSD state  2/A   transition
 EOM-SF-CCSD state 1/A -- EOM-IP-CCSD state 1/A transition
 EOM-SF-CCSD state 1/A -- EOM-IP-CCSD state 2/A transition
 EOM-EA-CCSD state  1/A -- Reference  transition
 EOM-EA-CCSD state  2/A -- Reference  transition
 EOM-EA-CCSD state 1/A -- EOM-SF-CCSD state 1/A transition
 EOM-EA-CCSD state 2/A -- EOM-SF-CCSD state 1/A transition

             Orbital Energies (a.u.) and Symmetries
 --------------------------------------------------------------

 Alpha MOs, Unrestricted
 -- Occupied --
-11.280  -0.945  -0.558  -0.502  -0.417
  1 A1    2 A1    1 B1    3 A1    1 B2

 Beta MOs, Unrestricted
 -- Occupied --
-11.228  -0.782  -0.516
  1 A1    2 A1    1 B1

          Ground-State Mulliken Net Atomic Charges

     Atom                 Charge (a.u.)    Spin (a.u.)
  --------------------------------------------------------
      1 C                    -0.327425       2.190787
      2 H                     0.163712      -0.095393
      3 H                     0.163712      -0.095393
  --------------------------------------------------------
  Sum of atomic charges =     0.000000

                    Cartesian Multipole Moments
 -----------------------------------------------------------------
    Charge (ESU x 10^10)
                 0.0000
    Dipole Moment (Debye)
         X       0.0000      Y      -0.0000      Z      -0.6359
       Tot       0.6359
    Quadrupole Moments (Debye-Ang)
        XX      -6.8991     XY       0.0000     YY      -7.9624
        XZ      -0.0000     YZ       0.0000     ZZ      -6.8599

 Total job time:  4.84s(wall), 4.78s(cpu)
        *  Thank you very much for using Q-Chem.  Have a nice day.  *
